/*--------------------------------*- C++ -*----------------------------------*\
| =========                 |                                                 |
| \\      /  F ield         | OpenFOAM: The Open Source CFD Toolbox           |
|  \\    /   O peration     | Version:  13                                    |
|   \\  /    A nd           | Website:  www.openfoam.org                      |
|    \\/     M anipulation  |                                                 |
\*---------------------------------------------------------------------------*/
FoamFile
{
    version     2.0;
    format      ascii;
    class       volVectorField;
    object      U;
}
// * * * * * * * * * * * * * * * * * * * * * * * * * * * * * * * * * * * * * //
//
// Velocity boundary conditions for 2D voxel CFD.
//
// Flow direction: +x at 1 m/s.
// Ground (bottom): no-slip wall.
// Top: slip (free-stream).
// frontAndBack: empty (2D).
// voxelShape: no-slip wall (solid body surface).
//
// * * * * * * * * * * * * * * * * * * * * * * * * * * * * * * * * * * * * * //

dimensions      [0 1 -1 0 0 0 0];

internalField   uniform (1 0 0);

boundaryField
{
    inlet
    {
        type            fixedValue;
        value           uniform (1 0 0);
    }

    outlet
    {
        type            zeroGradient;
    }

    bottom
    {
        type            noSlip;
    }

    top
    {
        type            slip;
    }

    frontAndBack
    {
        type            empty;
    }

    // Catch-all for any patches created by snappyHexMesh
    // (e.g. voxelShape, voxelShape_0, etc.)
    "voxelShape.*"
    {
        type            noSlip;
    }
}

// ************************************************************************* //
